 Entering Gaussian System, Link 0=gdv
 Input=test002.gjf
 Output=test002.log
 Initial command:
 /Users/hhratchian/.gaussian/gdv-current/gdv/l1.exe "/Users/hhratchian/.scratch/Gau-7313.inp" -scrdir="/Users/hhratchian/.scratch/"
 Entering Link 1 = /Users/hhratchian/.gaussian/gdv-current/gdv/l1.exe PID=      7314.
  
 Copyright (c) 1988,1990,1992,1993,1995,1998,2003,2009,2016,
            Gaussian, Inc.  All Rights Reserved.
  
 This is the private, development version of
 the Gaussian(R) DV system of programs. It is based on
 the Gaussian(R) 09 system (copyright 2009, Gaussian, Inc.),
 the Gaussian(R) 03 system (copyright 2003, Gaussian, Inc.),
 the Gaussian(R) 98 system (copyright 1998, Gaussian, Inc.),
 the Gaussian(R) 94 system (copyright 1995, Gaussian, Inc.),
 the Gaussian 92(TM) system (copyright 1992, Gaussian, Inc.),
 the Gaussian 90(TM) system (copyright 1990, Gaussian, Inc.),
 the Gaussian 88(TM) system (copyright 1988, Gaussian, Inc.),
 the Gaussian 86(TM) system (copyright 1986, Carnegie Mellon
 University), and the Gaussian 82(TM) system (copyright 1983,
 Carnegie Mellon University). Gaussian is a federally registered
 trademark of Gaussian, Inc.
  
 This software contains proprietary and confidential information,
 including trade secrets, belonging to Gaussian, Inc.
  
 This software is provided under written license and may be
 used, copied, transmitted, or stored only in accord with that
 written license.
  
 The following legend is applicable only to US Government
 contracts under FAR:
  
                    RESTRICTED RIGHTS LEGEND
  
 Use, reproduction and disclosure by the US Government is
 subject to restrictions as set forth in subparagraphs (a)
 and (c) of the Commercial Computer Software - Restricted
 Rights clause in FAR 52.227-19.
  
 Gaussian, Inc.
 340 Quinnipiac St., Bldg. 40, Wallingford CT 06492
  
  
 ---------------------------------------------------------------
 Warning -- This program may not be used in any manner that
 competes with the business of Gaussian, Inc. or will provide
 assistance to any competitor of Gaussian, Inc.  The licensee
 of this program is prohibited from giving any competitor of
 Gaussian, Inc. access to this program.  By using this program,
 the user acknowledges that Gaussian, Inc. is engaged in the
 business of creating and licensing software in the field of
 computational chemistry and represents and warrants to the
 licensee that it is not a competitor of Gaussian, Inc. and that
 it will not use this program in any manner prohibited above.
 ---------------------------------------------------------------
  

 Cite this work as:
 Gaussian Development Version, Revision I.09,
 M. J. Frisch, G. W. Trucks, H. B. Schlegel, G. E. Scuseria, 
 M. A. Robb, J. R. Cheeseman, G. Scalmani, V. Barone, 
 G. A. Petersson, H. Nakatsuji, X. Li, M. Caricato, A. Marenich, 
 J. Bloino, B. G. Janesko, R. Gomperts, B. Mennucci, H. P. Hratchian, 
 J. V. Ortiz, A. F. Izmaylov, J. L. Sonnenberg, D. Williams-Young, 
 F. Ding, F. Lipparini, F. Egidi, J. Goings, B. Peng, A. Petrone, 
 T. Henderson, D. Ranasinghe, V. G. Zakrzewski, J. Gao, N. Rega, 
 G. Zheng, W. Liang, M. Hada, M. Ehara, K. Toyota, R. Fukuda, 
 J. Hasegawa, M. Ishida, T. Nakajima, Y. Honda, O. Kitao, H. Nakai, 
 T. Vreven, K. Throssell, J. A. Montgomery, Jr., J. E. Peralta, 
 F. Ogliaro, M. Bearpark, J. J. Heyd, E. Brothers, K. N. Kudin, 
 V. N. Staroverov, T. Keith, R. Kobayashi, J. Normand, 
 K. Raghavachari, A. Rendell, J. C. Burant, S. S. Iyengar, J. Tomasi, 
 M. Cossi, J. M. Millam, M. Klene, C. Adamo, R. Cammi, 
 J. W. Ochterski, R. L. Martin, K. Morokuma, O. Farkas, 
 J. B. Foresman, and D. J. Fox, Gaussian, Inc., Wallingford CT, 2016.
 
 ******************************************
 Gaussian DV:  EM64M-GDVRevI.09  1-Aug-2016
                 4-Jun-2019 
 ******************************************
 %oldchk=test001
 %chk=test002
 Copying data from "test001.chk" to current chk file "test002.chk"
 IOpt=  2 FromEx=T IUOpen= 4 IOptOp= 5 NList=   0 IFRang= 0 IUIn= 4 IUOut= 2.
 ------------------------------------------------------------
 #p uhf/sto-3g guess=(read,permute,only,save) output=mat test
 ------------------------------------------------------------
 1/38=1,172=1/1;
 2/12=2,17=6,18=5,40=1/2;
 3/6=3,11=2,25=1,30=1,89=1,116=2/1,2,3,8;
 4/5=1,8=2/1;
 6/7=3,28=1/1;
 99/5=5,6=100000/99;
 Leave Link    1 at Tue Jun  4 12:22:35 2019, MaxMem=   100000000 cpu:               0.0 elap:               0.2
 (Enter /Users/hhratchian/.gaussian/gdv-current/gdv/l101.exe)
 ------------------------------------------------------------------
 Test001 - H2 at long distance with broken-symmetry result (1.5 A).
 ------------------------------------------------------------------
 Symbolic Z-matrix:
 Charge =  0 Multiplicity = 1
 H                     0.        0.        0.75 
 H                     0.        0.       -0.75 
 
 ITRead=  0  0
 MicOpt= -1 -1
 NAtoms=      2 NQM=        2 NQMF=       0 NMMI=      0 NMMIF=      0
                NMic=       0 NMicF=      0.
                    Isotopes and Nuclear Properties:
 (Nuclear quadrupole moments (NQMom) in fm**2, nuclear magnetic moments (NMagM)
  in nuclear magnetons)

  Atom         1           2
 IAtWgt=           1           1
 AtmWgt=   1.0078250   1.0078250
 NucSpn=           1           1
 AtZEff=   0.0000000   0.0000000
 NQMom=    0.0000000   0.0000000
 NMagM=    2.7928460   2.7928460
 AtZNuc=   1.0000000   1.0000000
 Leave Link  101 at Tue Jun  4 12:22:35 2019, MaxMem=   100000000 cpu:               0.1 elap:               0.1
 (Enter /Users/hhratchian/.gaussian/gdv-current/gdv/l202.exe)
                          Input orientation:                          
 ---------------------------------------------------------------------
 Center     Atomic      Atomic             Coordinates (Angstroms)
 Number     Number       Type             X           Y           Z
 ---------------------------------------------------------------------
      1          1           0        0.000000    0.000000    0.750000
      2          1           0        0.000000    0.000000   -0.750000
 ---------------------------------------------------------------------
 Stoichiometry    H2
 Framework group  D*H[C*(H.H)]
 Deg. of freedom     1
 Full point group                 D*H     NOp   8
 Largest Abelian subgroup         D2H     NOp   8
 Largest concise Abelian subgroup C2      NOp   2
                         Standard orientation:                         
 ---------------------------------------------------------------------
 Center     Atomic      Atomic             Coordinates (Angstroms)
 Number     Number       Type             X           Y           Z
 ---------------------------------------------------------------------
      1          1           0        0.000000    0.000000    0.750000
      2          1           0        0.000000    0.000000   -0.750000
 ---------------------------------------------------------------------
 Rotational constants (GHZ):           0.0000000         445.7378112         445.7378112
 Leave Link  202 at Tue Jun  4 12:22:35 2019, MaxMem=   100000000 cpu:               0.0 elap:               0.0
 (Enter /Users/hhratchian/.gaussian/gdv-current/gdv/l301.exe)
 Standard basis: STO-3G (5D, 7F)
 Ernie: Thresh=  0.10000D-02 Tol=  0.10000D-05 Strict=F.
 There are     1 symmetry adapted cartesian basis functions of AG  symmetry.
 There are     0 symmetry adapted cartesian basis functions of B1G symmetry.
 There are     0 symmetry adapted cartesian basis functions of B2G symmetry.
 There are     0 symmetry adapted cartesian basis functions of B3G symmetry.
 There are     0 symmetry adapted cartesian basis functions of AU  symmetry.
 There are     1 symmetry adapted cartesian basis functions of B1U symmetry.
 There are     0 symmetry adapted cartesian basis functions of B2U symmetry.
 There are     0 symmetry adapted cartesian basis functions of B3U symmetry.
 There are     1 symmetry adapted basis functions of AG  symmetry.
 There are     0 symmetry adapted basis functions of B1G symmetry.
 There are     0 symmetry adapted basis functions of B2G symmetry.
 There are     0 symmetry adapted basis functions of B3G symmetry.
 There are     0 symmetry adapted basis functions of AU  symmetry.
 There are     1 symmetry adapted basis functions of B1U symmetry.
 There are     0 symmetry adapted basis functions of B2U symmetry.
 There are     0 symmetry adapted basis functions of B3U symmetry.
     2 basis functions,     6 primitive gaussians,     2 cartesian basis functions
     1 alpha electrons        1 beta electrons
       nuclear repulsion energy         0.3527847838 Hartrees.
 IExCor=    0 DFT=F Ex=HF Corr=None ExCW=0 ScaHFX=  1.000000
 ScaDFX=  1.000000  1.000000  1.000000  1.000000 ScalE2=  1.000000  1.000000
 IRadAn=      5 IRanWt=     -1 IRanGd=            0 ICorTp=0 IEmpDi=  4
 NAtoms=    2 NActive=    2 NUniq=    1 SFac= 4.00D+00 NAtFMM=   60 NAOKFM=F Big=F
 Integral buffers will be    131072 words long.
 Raffenetti 2 integral format.
 Two-electron integral symmetry is turned on.
 Leave Link  301 at Tue Jun  4 12:22:35 2019, MaxMem=   100000000 cpu:               0.0 elap:               0.0
 (Enter /Users/hhratchian/.gaussian/gdv-current/gdv/l302.exe)
 NPDir=0 NMtPBC=     1 NCelOv=     1 NCel=       1 NClECP=     1 NCelD=      1
         NCelK=      1 NCelE2=     1 NClLst=     1 CellRange=     0.0.
 One-electron integrals computed using PRISM.
 One-electron integral symmetry used in STVInt
 NBasis=     2 RedAO= T EigKep=  7.43D-01  NBF=     1     0     0     0     0     1     0     0
 NBsUse=     2 1.00D-06 EigRej= -1.00D+00 NBFU=     1     0     0     0     0     1     0     0
 Leave Link  302 at Tue Jun  4 12:22:35 2019, MaxMem=   100000000 cpu:               0.0 elap:               0.1
 (Enter /Users/hhratchian/.gaussian/gdv-current/gdv/l303.exe)
 DipDrv:  MaxL=1.
 Leave Link  303 at Tue Jun  4 12:22:35 2019, MaxMem=   100000000 cpu:               0.0 elap:               0.0
 (Enter /Users/hhratchian/.gaussian/gdv-current/gdv/l308.exe)
 Leave Link  308 at Tue Jun  4 12:22:35 2019, MaxMem=   100000000 cpu:               0.0 elap:               0.0
 (Enter /Users/hhratchian/.gaussian/gdv-current/gdv/l401.exe)
 Initial guess from the checkpoint file:  "test002.chk"
 B after Tr=     0.000000    0.000000    0.000000
         Rot=    1.000000    0.000000    0.000000    0.000000 Ang=   0.00 deg.
 Guess basis will be translated and rotated to current coordinates.
 JPrj=2 DoOrth=T DoCkMO=T.
 Alpha guess permutation (I<-O):    2    1
 Beta  guess permutation (I<-O):    1    2
 Initial guess orbital symmetries:
 Alpha Orbitals:
       Occupied  (?A)
       Virtual   (?A)
 Beta  Orbitals:
       Occupied  (?A)
       Virtual   (?A)
 Initial guess <Sx>= 0.0000 <Sy>= 0.0000 <Sz>= 0.0000 <S**2>= 0.3051 S= 0.2451
 Leave Link  401 at Tue Jun  4 12:22:36 2019, MaxMem=   100000000 cpu:               0.1 elap:               0.1
 (Enter /Users/hhratchian/.gaussian/gdv-current/gdv/l601.exe)
 Copying SCF densities to generalized density rwf, IOpCl= 1 IROHF=0.
 SCF density gives NOpUse=  1 NOpAll=  8.
 Marking SCF density as not fully symmetric.

 **********************************************************************

            Population analysis using the SCF density.

 **********************************************************************

 Orbital symmetries:
 Alpha Orbitals:
       Occupied  (?A)
       Virtual   (?A)
 Beta  Orbitals:
       Occupied  (?A)
       Virtual   (?A)
 Unable to determine electronic state:  an orbital has unidentified symmetry.
 Alpha  occ. eigenvalues --    0.33256
 Alpha virt. eigenvalues --   -0.45666
  Beta  occ. eigenvalues --   -0.45666
  Beta virt. eigenvalues --    0.33256
     Alpha Molecular Orbital Coefficients:
                           1         2
                           O         V
     Eigenvalues --     0.33256  -0.45666
   1 1   H  1S         -0.42422   0.94373
   2 2   H  1S          1.02102   0.16766
     Beta Molecular Orbital Coefficients:
                           1         2
                           O         V
     Eigenvalues --    -0.45666   0.33256
   1 1   H  1S          0.16766   1.02102
   2 2   H  1S          0.94373  -0.42422
     Alpha Density Matrix:
                           1         2
   1 1   H  1S          0.17996
   2 2   H  1S         -0.43314   1.04249
     Beta Density Matrix:
                           1         2
   1 1   H  1S          0.02811
   2 2   H  1S          0.15822   0.89063
    Full Mulliken population analysis:
                           1         2
   1 1   H  1S          0.20807
   2 2   H  1S         -0.07059   1.93312
     Gross orbital populations:
                         Total     Alpha     Beta      Spin
   1 1   H  1S          0.13748   0.06874   0.06874   0.00000
   2 2   H  1S          1.86252   0.93126   0.93126   0.00000
          Condensed to atoms (all electrons):
               1          2
     1  H    0.208069  -0.070594
     2  H   -0.070594   1.933119
          Atomic-Atomic Spin Densities.
               1          2
     1  H    0.151853  -0.151853
     2  H   -0.151853   0.151853
 Mulliken charges and spin densities:
               1          2
     1  H    0.862525   0.000000
     2  H   -0.862525   0.000000
 Sum of Mulliken charges =   0.00000   0.00000
 Mulliken charges and spin densities with hydrogens summed into heavy atoms:
               1          2
 Electronic spatial extent (au):  <R**2>=              8.0297
 Charge=              0.0000 electrons
 Dipole moment (field-independent basis, Debye):
    X=              0.0000    Y=              0.0000    Z=              6.2143  Tot=              6.2143
 Quadrupole moment (field-independent basis, Debye-Ang):
   XX=             -1.6961   YY=             -1.6961   ZZ=             -2.0045
   XY=              0.0000   XZ=              0.0000   YZ=              0.0000
 Traceless Quadrupole moment (field-independent basis, Debye-Ang):
   XX=              0.1028   YY=              0.1028   ZZ=             -0.2056
   XY=              0.0000   XZ=              0.0000   YZ=              0.0000
 Octapole moment (field-independent basis, Debye-Ang**2):
  XXX=              0.0000  YYY=              0.0000  ZZZ=              6.8864  XYY=              0.0000
  XXY=              0.0000  XXZ=              1.1303  XZZ=              0.0000  YZZ=              0.0000
  YYZ=              1.1303  XYZ=              0.0000
 Hexadecapole moment (field-independent basis, Debye-Ang**3):
 XXXX=             -1.3361 YYYY=             -1.3361 ZZZZ=             -7.7808 XXXY=              0.0000
 XXXZ=              0.0000 YYYX=              0.0000 YYYZ=              0.0000 ZZZX=              0.0000
 ZZZY=              0.0000 XXYY=             -0.4454 XXZZ=             -1.4866 YYZZ=             -1.4866
 XXYZ=              0.0000 YYXZ=              0.0000 ZZXY=              0.0000
 N-N= 3.527847837610D-01 E-N=-3.195588765748D+00  KE= 1.622070981573D+00
 Symmetry AG   KE= 6.124126998185D-01
 Symmetry B1G  KE= 0.000000000000D+00
 Symmetry B2G  KE= 0.000000000000D+00
 Symmetry B3G  KE= 0.000000000000D+00
 Symmetry AU   KE= 0.000000000000D+00
 Symmetry B1U  KE= 1.009658281754D+00
 Symmetry B2U  KE= 0.000000000000D+00
 Symmetry B3U  KE= 0.000000000000D+00
 Symmetry AG   SP=-5.523643770358D-01
 Symmetry B1G  SP= 0.000000000000D+00
 Symmetry B2G  SP= 0.000000000000D+00
 Symmetry B3G  SP= 0.000000000000D+00
 Symmetry AU   SP= 0.000000000000D+00
 Symmetry B1U  SP= 5.523643770358D-01
 Symmetry B2U  SP= 0.000000000000D+00
 Symmetry B3U  SP= 0.000000000000D+00
 Orbital energies and kinetic energies (alpha):
                                 1                 2
   1         O                 0.332557          0.920748
   2         V                -0.456664          0.701323
 Orbital energies and kinetic energies (beta):
                                 1                 2
   1         O                -0.456664          0.701323
   2         V                 0.332557          0.920748
 Total kinetic energy from orbitals= 1.622070981573D+00
                          Isotropic Fermi Contact Couplings
        Atom                 a.u.       MegaHertz       Gauss      10(-4) cm-1
     1  H(1)               0.04272      95.48311      34.07075      31.84974
     2  H(1)               0.04272      95.48311      34.07075      31.84974
 --------------------------------------------------------
       Center         ----  Spin Dipole Couplings  ----
                      3XX-RR        3YY-RR        3ZZ-RR
 --------------------------------------------------------
     1   Atom        0.013617      0.013617     -0.027234
     2   Atom        0.013617      0.013617     -0.027234
 --------------------------------------------------------
                        XY            XZ            YZ
 --------------------------------------------------------
     1   Atom        0.000000      0.000000      0.000000
     2   Atom        0.000000      0.000000      0.000000
 --------------------------------------------------------


 ---------------------------------------------------------------------------------
              Anisotropic Spin Dipole Couplings in Principal Axis System
 ---------------------------------------------------------------------------------

       Atom             a.u.   MegaHertz   Gauss  10(-4) cm-1        Axes

              Baa    -0.0272   -14.531    -5.185    -4.847  0.0000  0.0000  1.0000
     1 H(1)   Bbb     0.0136     7.265     2.592     2.423  1.0000  0.0000  0.0000
              Bcc     0.0136     7.265     2.592     2.423  0.0000  1.0000  0.0000
 
              Baa    -0.0272   -14.531    -5.185    -4.847  0.0000  0.0000  1.0000
     2 H(1)   Bbb     0.0136     7.265     2.592     2.423  0.6952  0.7189  0.0000
              Bcc     0.0136     7.265     2.592     2.423  0.7189 -0.6952  0.0000
 

 ---------------------------------------------------------------------------------

 No NMR shielding tensors so no spin-rotation constants.
 Leave Link  601 at Tue Jun  4 12:22:36 2019, MaxMem=   100000000 cpu:               0.1 elap:               0.1
 (Enter /Users/hhratchian/.gaussian/gdv-current/gdv/l9999.exe)

 This type of calculation cannot be archived.


 A MAN IS EXACTLY AS GREAT AS THE TIDE SURGING
 BENEATH HIM.      - BISMARCK

 End of input file reading file name.
 Error termination via Lnk1e in /Users/hhratchian/.gaussian/gdv-current/gdv/l9999.exe at Tue Jun  4 12:22:36 2019.
 Job cpu time:       0 days  0 hours  0 minutes  0.6 seconds.
 Elapsed time:       0 days  0 hours  0 minutes  0.7 seconds.
 File lengths (MBytes):  RWF=      6 Int=      0 D2E=      0 Chk=      1 Scr=      1
