 Entering Gaussian System, Link 0=gdv
 Input=test001.gjf
 Output=test001.log
 Initial command:
 /Users/hhratchian/.gaussian/gdv-current/gdv/l1.exe "/Users/hhratchian/.scratch/Gau-7080.inp" -scrdir="/Users/hhratchian/.scratch/"
 Entering Link 1 = /Users/hhratchian/.gaussian/gdv-current/gdv/l1.exe PID=      7081.
  
 Copyright (c) 1988,1990,1992,1993,1995,1998,2003,2009,2016,
            Gaussian, Inc.  All Rights Reserved.
  
 This is the private, development version of
 the Gaussian(R) DV system of programs. It is based on
 the Gaussian(R) 09 system (copyright 2009, Gaussian, Inc.),
 the Gaussian(R) 03 system (copyright 2003, Gaussian, Inc.),
 the Gaussian(R) 98 system (copyright 1998, Gaussian, Inc.),
 the Gaussian(R) 94 system (copyright 1995, Gaussian, Inc.),
 the Gaussian 92(TM) system (copyright 1992, Gaussian, Inc.),
 the Gaussian 90(TM) system (copyright 1990, Gaussian, Inc.),
 the Gaussian 88(TM) system (copyright 1988, Gaussian, Inc.),
 the Gaussian 86(TM) system (copyright 1986, Carnegie Mellon
 University), and the Gaussian 82(TM) system (copyright 1983,
 Carnegie Mellon University). Gaussian is a federally registered
 trademark of Gaussian, Inc.
  
 This software contains proprietary and confidential information,
 including trade secrets, belonging to Gaussian, Inc.
  
 This software is provided under written license and may be
 used, copied, transmitted, or stored only in accord with that
 written license.
  
 The following legend is applicable only to US Government
 contracts under FAR:
  
                    RESTRICTED RIGHTS LEGEND
  
 Use, reproduction and disclosure by the US Government is
 subject to restrictions as set forth in subparagraphs (a)
 and (c) of the Commercial Computer Software - Restricted
 Rights clause in FAR 52.227-19.
  
 Gaussian, Inc.
 340 Quinnipiac St., Bldg. 40, Wallingford CT 06492
  
  
 ---------------------------------------------------------------
 Warning -- This program may not be used in any manner that
 competes with the business of Gaussian, Inc. or will provide
 assistance to any competitor of Gaussian, Inc.  The licensee
 of this program is prohibited from giving any competitor of
 Gaussian, Inc. access to this program.  By using this program,
 the user acknowledges that Gaussian, Inc. is engaged in the
 business of creating and licensing software in the field of
 computational chemistry and represents and warrants to the
 licensee that it is not a competitor of Gaussian, Inc. and that
 it will not use this program in any manner prohibited above.
 ---------------------------------------------------------------
  

 Cite this work as:
 Gaussian Development Version, Revision I.09,
 M. J. Frisch, G. W. Trucks, H. B. Schlegel, G. E. Scuseria, 
 M. A. Robb, J. R. Cheeseman, G. Scalmani, V. Barone, 
 G. A. Petersson, H. Nakatsuji, X. Li, M. Caricato, A. Marenich, 
 J. Bloino, B. G. Janesko, R. Gomperts, B. Mennucci, H. P. Hratchian, 
 J. V. Ortiz, A. F. Izmaylov, J. L. Sonnenberg, D. Williams-Young, 
 F. Ding, F. Lipparini, F. Egidi, J. Goings, B. Peng, A. Petrone, 
 T. Henderson, D. Ranasinghe, V. G. Zakrzewski, J. Gao, N. Rega, 
 G. Zheng, W. Liang, M. Hada, M. Ehara, K. Toyota, R. Fukuda, 
 J. Hasegawa, M. Ishida, T. Nakajima, Y. Honda, O. Kitao, H. Nakai, 
 T. Vreven, K. Throssell, J. A. Montgomery, Jr., J. E. Peralta, 
 F. Ogliaro, M. Bearpark, J. J. Heyd, E. Brothers, K. N. Kudin, 
 V. N. Staroverov, T. Keith, R. Kobayashi, J. Normand, 
 K. Raghavachari, A. Rendell, J. C. Burant, S. S. Iyengar, J. Tomasi, 
 M. Cossi, J. M. Millam, M. Klene, C. Adamo, R. Cammi, 
 J. W. Ochterski, R. L. Martin, K. Morokuma, O. Farkas, 
 J. B. Foresman, and D. J. Fox, Gaussian, Inc., Wallingford CT, 2016.
 
 ******************************************
 Gaussian DV:  EM64M-GDVRevI.09  1-Aug-2016
                 4-Jun-2019 
 ******************************************
 %chk=test001
 ---------------------------------------
 #p test uhf sto-3g guess=mix output=mat
 ---------------------------------------
 1/38=1,172=1/1;
 2/12=2,17=6,18=5,40=1/2;
 3/6=3,11=2,25=1,30=1,116=2/1,2,3,8;
 4/13=-1/1;
 5/5=2,38=5/2;
 6/7=2,8=2,9=2,10=2,28=1/1;
 99/5=1,6=100000,9=1/99;
 Leave Link    1 at Tue Jun  4 11:37:01 2019, MaxMem=           0 cpu:               0.0 elap:               0.2
 (Enter /Users/hhratchian/.gaussian/gdv-current/gdv/l101.exe)
 ------------------------------------------------------------------
 Test001 - H2 at long distance with broken-symmetry result (1.5 A).
 ------------------------------------------------------------------
 Symbolic Z-matrix:
 Charge =  0 Multiplicity = 1
 h
 h                    1     1.5 
 
 ITRead=  0  0
 MicOpt= -1 -1
 NAtoms=      2 NQM=        2 NQMF=       0 NMMI=      0 NMMIF=      0
                NMic=       0 NMicF=      0.
                    Isotopes and Nuclear Properties:
 (Nuclear quadrupole moments (NQMom) in fm**2, nuclear magnetic moments (NMagM)
  in nuclear magnetons)

  Atom         1           2
 IAtWgt=           1           1
 AtmWgt=   1.0078250   1.0078250
 NucSpn=           1           1
 AtZEff=   0.0000000   0.0000000
 NQMom=    0.0000000   0.0000000
 NMagM=    2.7928460   2.7928460
 AtZNuc=   1.0000000   1.0000000
 Leave Link  101 at Tue Jun  4 11:37:01 2019, MaxMem=   100000000 cpu:               0.1 elap:               0.1
 (Enter /Users/hhratchian/.gaussian/gdv-current/gdv/l202.exe)
                          Input orientation:                          
 ---------------------------------------------------------------------
 Center     Atomic      Atomic             Coordinates (Angstroms)
 Number     Number       Type             X           Y           Z
 ---------------------------------------------------------------------
      1          1           0        0.000000    0.000000    0.000000
      2          1           0        0.000000    0.000000    1.500000
 ---------------------------------------------------------------------
 Stoichiometry    H2
 Framework group  D*H[C*(H.H)]
 Deg. of freedom     1
 Full point group                 D*H     NOp   8
 Largest Abelian subgroup         D2H     NOp   8
 Largest concise Abelian subgroup C2      NOp   2
                         Standard orientation:                         
 ---------------------------------------------------------------------
 Center     Atomic      Atomic             Coordinates (Angstroms)
 Number     Number       Type             X           Y           Z
 ---------------------------------------------------------------------
      1          1           0        0.000000    0.000000    0.750000
      2          1           0        0.000000    0.000000   -0.750000
 ---------------------------------------------------------------------
 Rotational constants (GHZ):           0.0000000         445.7378706         445.7378706
 Leave Link  202 at Tue Jun  4 11:37:01 2019, MaxMem=   100000000 cpu:               0.0 elap:               0.0
 (Enter /Users/hhratchian/.gaussian/gdv-current/gdv/l301.exe)
 Standard basis: STO-3G (5D, 7F)
 Ernie: Thresh=  0.10000D-02 Tol=  0.10000D-05 Strict=F.
 There are     1 symmetry adapted cartesian basis functions of AG  symmetry.
 There are     0 symmetry adapted cartesian basis functions of B1G symmetry.
 There are     0 symmetry adapted cartesian basis functions of B2G symmetry.
 There are     0 symmetry adapted cartesian basis functions of B3G symmetry.
 There are     0 symmetry adapted cartesian basis functions of AU  symmetry.
 There are     1 symmetry adapted cartesian basis functions of B1U symmetry.
 There are     0 symmetry adapted cartesian basis functions of B2U symmetry.
 There are     0 symmetry adapted cartesian basis functions of B3U symmetry.
 There are     1 symmetry adapted basis functions of AG  symmetry.
 There are     0 symmetry adapted basis functions of B1G symmetry.
 There are     0 symmetry adapted basis functions of B2G symmetry.
 There are     0 symmetry adapted basis functions of B3G symmetry.
 There are     0 symmetry adapted basis functions of AU  symmetry.
 There are     1 symmetry adapted basis functions of B1U symmetry.
 There are     0 symmetry adapted basis functions of B2U symmetry.
 There are     0 symmetry adapted basis functions of B3U symmetry.
     2 basis functions,     6 primitive gaussians,     2 cartesian basis functions
     1 alpha electrons        1 beta electrons
       nuclear repulsion energy         0.3527848073 Hartrees.
 IExCor=    0 DFT=F Ex=HF Corr=None ExCW=0 ScaHFX=  1.000000
 ScaDFX=  1.000000  1.000000  1.000000  1.000000 ScalE2=  1.000000  1.000000
 IRadAn=      5 IRanWt=     -1 IRanGd=            0 ICorTp=0 IEmpDi=  4
 NAtoms=    2 NActive=    2 NUniq=    1 SFac= 4.00D+00 NAtFMM=   60 NAOKFM=F Big=F
 Integral buffers will be    131072 words long.
 Raffenetti 2 integral format.
 Two-electron integral symmetry is turned on.
 Leave Link  301 at Tue Jun  4 11:37:01 2019, MaxMem=   100000000 cpu:               0.0 elap:               0.1
 (Enter /Users/hhratchian/.gaussian/gdv-current/gdv/l302.exe)
 NPDir=0 NMtPBC=     1 NCelOv=     1 NCel=       1 NClECP=     1 NCelD=      1
         NCelK=      1 NCelE2=     1 NClLst=     1 CellRange=     0.0.
 One-electron integrals computed using PRISM.
 One-electron integral symmetry used in STVInt
 NBasis=     2 RedAO= T EigKep=  7.43D-01  NBF=     1     0     0     0     0     1     0     0
 NBsUse=     2 1.00D-06 EigRej= -1.00D+00 NBFU=     1     0     0     0     0     1     0     0
 Leave Link  302 at Tue Jun  4 11:37:02 2019, MaxMem=   100000000 cpu:               0.1 elap:               0.1
 (Enter /Users/hhratchian/.gaussian/gdv-current/gdv/l303.exe)
 DipDrv:  MaxL=1.
 Leave Link  303 at Tue Jun  4 11:37:02 2019, MaxMem=   100000000 cpu:               0.0 elap:               0.0
 (Enter /Users/hhratchian/.gaussian/gdv-current/gdv/l308.exe)
 Leave Link  308 at Tue Jun  4 11:37:02 2019, MaxMem=   100000000 cpu:               0.0 elap:               0.0
 (Enter /Users/hhratchian/.gaussian/gdv-current/gdv/l401.exe)
 ExpMin= 1.69D-01 ExpMax= 3.43D+00 ExpMxC= 3.43D+00 IAcc=3 IRadAn=         5 AccDes= 0.00D+00
 Harris functional with IExCor=  205 and IRadAn=       5 diagonalized for initial guess.
 HarFok:  IExCor=  205 AccDes= 0.00D+00 IRadAn=         5 IDoV= 1 UseB2=F ITyADJ=14
 ICtDFT=  3500011 ScaDFX=  1.000000  1.000000  1.000000  1.000000
 FoFCou: FMM=F IPFlag=           0 FMFlag=      100000 FMFlg1=           0
         NFxFlg=           0 DoJE=T BraDBF=F KetDBF=T FulRan=T
         wScrn=  0.000000 ICntrl=       500 IOpCl=  0 I1Cent=   200000004 NGrid=           0
         NMat0=    1 NMatS0=      1 NMatT0=    0 NMatD0=    1 NMtDS0=    0 NMtDT0=    0
 Petite list used in FoFCou.
 Harris En= -1.00777806208737    
 JPrj=0 DoOrth=F DoCkMO=T.
 Mixing orbitals, IMix= 1 IMixAn=  0 NRI=1 NE=    1 Coef=  7.07106781D-01  7.07106781D-01
 Mixing orbitals, IMix= 1 IMixAn=  0 NRI=1 NE=    1 Coef= -7.07106781D-01  7.07106781D-01
 Initial guess orbital symmetries:
 Alpha Orbitals:
       Occupied  (?A)
       Virtual   (?A)
 Beta  Orbitals:
       Occupied  (?A)
       Virtual   (?A)
 Initial guess <Sx>= 0.0000 <Sy>= 0.0000 <Sz>= 0.0000 <S**2>= 1.0000 S= 0.6180
 Leave Link  401 at Tue Jun  4 11:37:02 2019, MaxMem=   100000000 cpu:               0.1 elap:               0.1
 (Enter /Users/hhratchian/.gaussian/gdv-current/gdv/l502.exe)
 Keep R1 and R2 ints in memory in symmetry-blocked form, NReq=801177.
 FoFCou: FMM=F IPFlag=           0 FMFlag=           0 FMFlg1=           0
         NFxFlg=           0 DoJE=F BraDBF=F KetDBF=F FulRan=T
         wScrn=  0.000000 ICntrl=       600 IOpCl=  0 I1Cent=           0 NGrid=           0
         NMat0=    1 NMatS0=      3 NMatT0=    0 NMatD0=    1 NMtDS0=    0 NMtDT0=    0
 Petite list used in FoFCou.
 UHF open shell SCF:
 Using DIIS extrapolation, IDIIS=  1040.
 NGot=   100000000 LenX=    99998484 LenY=    99997602
 Requested convergence on RMS density matrix=1.00D-08 within 128 cycles.
 Requested convergence on MAX density matrix=1.00D-06.
 Requested convergence on             energy=1.00D-06.
 No special actions if energy rises.
 An orbital has undefined symmetry, so N**3 symmetry is turned off.

 Cycle   1  Pass 1  IDiag  1:
 Density matrix breaks symmetry, PCut= 1.00D-07
 Density matrix has no symmetry -- integrals replicated.
 E=-0.886395825692294    
 DIIS: error= 6.46D-02 at cycle   1 NSaved=   1.
 NSaved= 1 IEnMin= 1 EnMin=-0.886395825692294     IErMin= 1 ErrMin= 6.46D-02
 ErrMax= 6.46D-02  0.00D+00 EMaxC= 1.00D-01 BMatC= 6.67D-02 BMatP= 6.67D-02
 IDIUse=3 WtCom= 3.54D-01 WtEn= 6.46D-01
 Coeff-Com:  0.100D+01
 Coeff-En:   0.100D+01
 Coeff:      0.100D+01
 Gap=     0.789 Goal=   None    Shift=    0.000
 Gap=     0.789 Goal=   None    Shift=    0.000
 GapD=    0.789 DampG=2.000 DampE=0.500 DampFc=1.0000 IDamp=-1.
 RMSDP=1.23D-01 MaxDP=1.66D-01              OVMax= 0.00D+00

 Cycle   2  Pass 1  IDiag  1:
 Density matrix breaks symmetry, PCut= 1.00D-07
 Density matrix has no symmetry -- integrals replicated.
 E=-0.944084392881374     Delta-E=       -0.057688567189 Rises=F Damp=F
 DIIS: error= 2.68D-02 at cycle   2 NSaved=   2.
 NSaved= 2 IEnMin= 2 EnMin=-0.944084392881374     IErMin= 2 ErrMin= 2.68D-02
 ErrMax= 2.68D-02  0.00D+00 EMaxC= 1.00D-01 BMatC= 1.15D-02 BMatP= 6.67D-02
 IDIUse=3 WtCom= 7.32D-01 WtEn= 2.68D-01
 Coeff-Com: -0.711D+00 0.171D+01
 Coeff-En:   0.000D+00 0.100D+01
 Coeff:     -0.520D+00 0.152D+01
 Gap=     0.821 Goal=   None    Shift=    0.000
 Gap=     0.821 Goal=   None    Shift=    0.000
 RMSDP=7.57D-02 MaxDP=9.59D-02 DE=-5.77D-02 OVMax= 0.00D+00

 Cycle   3  Pass 1  IDiag  1:
 Density matrix breaks symmetry, PCut= 1.00D-07
 Density matrix has no symmetry -- integrals replicated.
 E=-0.956800113249911     Delta-E=       -0.012715720369 Rises=F Damp=F
 DIIS: error= 6.34D-03 at cycle   3 NSaved=   3.
 NSaved= 3 IEnMin= 3 EnMin=-0.956800113249911     IErMin= 3 ErrMin= 6.34D-03
 ErrMax= 6.34D-03  0.00D+00 EMaxC= 1.00D-01 BMatC= 6.44D-04 BMatP= 1.15D-02
 IDIUse=3 WtCom= 9.37D-01 WtEn= 6.34D-02
 Large coefficients: NSaved=  3 BigCof=    0.00 CofMax=   10.00 Det=-8.67D-19
 Inversion failed.  Reducing to  2 matrices.
 Coeff-Com: -0.310D+00 0.131D+01
 Coeff-En:   0.000D+00 0.100D+01
 Coeff:     -0.290D+00 0.129D+01
 Gap=     0.796 Goal=   None    Shift=    0.000
 Gap=     0.796 Goal=   None    Shift=    0.000
 RMSDP=2.35D-02 MaxDP=2.81D-02 DE=-1.27D-02 OVMax= 0.00D+00

 Cycle   4  Pass 1  IDiag  1:
 Density matrix breaks symmetry, PCut= 1.00D-07
 Density matrix has no symmetry -- integrals replicated.
 E=-0.957684097464434     Delta-E=       -0.000883984215 Rises=F Damp=F
 DIIS: error= 9.67D-04 at cycle   4 NSaved=   3.
 NSaved= 3 IEnMin= 3 EnMin=-0.957684097464434     IErMin= 3 ErrMin= 9.67D-04
 ErrMax= 9.67D-04  0.00D+00 EMaxC= 1.00D-01 BMatC= 1.50D-05 BMatP= 6.44D-04
 IDIUse=3 WtCom= 9.90D-01 WtEn= 9.67D-03
 Large coefficients: NSaved=  3 BigCof=    0.00 CofMax=   10.00 Det= 5.42D-20
 Inversion failed.  Reducing to  2 matrices.
 Coeff-Com: -0.180D+00 0.118D+01
 Coeff-En:   0.000D+00 0.100D+01
 Coeff:     -0.178D+00 0.118D+01
 Gap=     0.790 Goal=   None    Shift=    0.000
 Gap=     0.790 Goal=   None    Shift=    0.000
 RMSDP=4.28D-03 MaxDP=5.00D-03 DE=-8.84D-04 OVMax= 0.00D+00

 Cycle   5  Pass 1  IDiag  1:
 Density matrix breaks symmetry, PCut= 1.00D-07
 Density matrix has no symmetry -- integrals replicated.
 E=-0.957706731981369     Delta-E=       -0.000022634517 Rises=F Damp=F
 DIIS: error= 5.06D-05 at cycle   5 NSaved=   3.
 NSaved= 3 IEnMin= 3 EnMin=-0.957706731981369     IErMin= 3 ErrMin= 5.06D-05
 ErrMax= 5.06D-05  0.00D+00 EMaxC= 1.00D-01 BMatC= 4.09D-08 BMatP= 1.50D-05
 IDIUse=1 WtCom= 1.00D+00 WtEn= 0.00D+00
 Large coefficients: NSaved=  3 BigCof=    0.00 CofMax=   10.00 Det=-1.69D-21
 Inversion failed.  Reducing to  2 matrices.
 Coeff-Com: -0.552D-01 0.106D+01
 Coeff:     -0.552D-01 0.106D+01
 Gap=     0.789 Goal=   None    Shift=    0.000
 Gap=     0.789 Goal=   None    Shift=    0.000
 RMSDP=2.37D-04 MaxDP=2.75D-04 DE=-2.26D-05 OVMax= 0.00D+00

 Cycle   6  Pass 1  IDiag  1:
 Density matrix breaks symmetry, PCut= 1.00D-07
 Density matrix has no symmetry -- integrals replicated.
 E=-0.957706794899458     Delta-E=       -0.000000062918 Rises=F Damp=F
 DIIS: error= 4.23D-07 at cycle   6 NSaved=   3.
 NSaved= 3 IEnMin= 3 EnMin=-0.957706794899458     IErMin= 3 ErrMin= 4.23D-07
 ErrMax= 4.23D-07  0.00D+00 EMaxC= 1.00D-01 BMatC= 2.86D-12 BMatP= 4.09D-08
 IDIUse=1 WtCom= 1.00D+00 WtEn= 0.00D+00
 Large coefficients: NSaved=  3 BigCof=    0.00 CofMax=   10.00 Det=-1.32D-23
 Inversion failed.  Reducing to  2 matrices.
 Coeff-Com: -0.843D-02 0.101D+01
 Coeff:     -0.843D-02 0.101D+01
 Gap=     0.789 Goal=   None    Shift=    0.000
 Gap=     0.789 Goal=   None    Shift=    0.000
 RMSDP=1.99D-06 MaxDP=2.32D-06 DE=-6.29D-08 OVMax= 0.00D+00

 Cycle   7  Pass 1  IDiag  1:
 Density matrix breaks symmetry, PCut= 1.00D-07
 Density matrix has no symmetry -- integrals replicated.
 E=-0.957706794903860     Delta-E=       -0.000000000004 Rises=F Damp=F
 DIIS: error= 1.90D-10 at cycle   7 NSaved=   3.
 NSaved= 3 IEnMin= 3 EnMin=-0.957706794903860     IErMin= 3 ErrMin= 1.90D-10
 ErrMax= 1.90D-10  0.00D+00 EMaxC= 1.00D-01 BMatC= 5.75D-19 BMatP= 2.86D-12
 IDIUse=1 WtCom= 1.00D+00 WtEn= 0.00D+00
 Large coefficients: NSaved=  3 BigCof=    0.00 CofMax=   10.00 Det=-4.04D-28
 Inversion failed.  Reducing to  2 matrices.
 Coeff-Com: -0.449D-03 0.100D+01
 Coeff:     -0.449D-03 0.100D+01
 Gap=     0.789 Goal=   None    Shift=    0.000
 Gap=     0.789 Goal=   None    Shift=    0.000
 RMSDP=8.95D-10 MaxDP=1.04D-09 DE=-4.40D-12 OVMax= 0.00D+00

 Density matrix breaks symmetry, PCut= 1.00D-07
 Density matrix has no symmetry -- integrals replicated.
 SCF Done:  E(UHF) = -0.957706794904     A.U. after    7 cycles
            NFock=  7  Conv=0.90D-09     -V/T= 1.6828
 <Sx>= 0.0000 <Sy>= 0.0000 <Sz>= 0.0000 <S**2>= 0.6949 S= 0.4721
 <L.S>=  0.00000000000    
 KE= 1.402646662244D+00 PE=-3.110302818740D+00 EE= 3.971645543130D-01
 Annihilation of the first spin contaminant:
 S**2 before annihilation     0.6949,   after     0.0000
 Leave Link  502 at Tue Jun  4 11:37:02 2019, MaxMem=   100000000 cpu:               0.0 elap:               0.1
 (Enter /Users/hhratchian/.gaussian/gdv-current/gdv/l601.exe)
 Copying SCF densities to generalized density rwf, IOpCl= 1 IROHF=0.
 SCF density gives NOpUse=  1 NOpAll=  8.
 Marking SCF density as not fully symmetric.

 **********************************************************************

            Population analysis using the SCF density.

 **********************************************************************

 Orbital symmetries:
 Alpha Orbitals:
       Occupied  (?A)
       Virtual   (?A)
 Beta  Orbitals:
       Occupied  (?A)
       Virtual   (?A)
 Unable to determine electronic state:  an orbital has unidentified symmetry.
 Alpha  occ. eigenvalues --   -0.45666
 Alpha virt. eigenvalues --    0.33256
  Beta  occ. eigenvalues --   -0.45666
  Beta virt. eigenvalues --    0.33256
          Condensed to atoms (all electrons):
               1          2
     1  H    0.918741   0.081259
     2  H    0.081259   0.918741
          Atomic-Atomic Spin Densities.
               1          2
     1  H    0.862525   0.000000
     2  H    0.000000  -0.862525
 Mulliken charges and spin densities:
               1          2
     1  H    0.000000   0.862525
     2  H    0.000000  -0.862525
 Sum of Mulliken charges =   0.00000   0.00000
 Mulliken charges and spin densities with hydrogens summed into heavy atoms:
               1          2
 Electronic spatial extent (au):  <R**2>=              7.7821
 Charge=              0.0000 electrons
 Dipole moment (field-independent basis, Debye):
    X=              0.0000    Y=              0.0000    Z=              0.0000  Tot=              0.0000
 Quadrupole moment (field-independent basis, Debye-Ang):
   XX=             -1.8062   YY=             -1.8062   ZZ=             -1.4512
   XY=              0.0000   XZ=              0.0000   YZ=              0.0000
 Traceless Quadrupole moment (field-independent basis, Debye-Ang):
   XX=             -0.1183   YY=             -0.1183   ZZ=              0.2367
   XY=              0.0000   XZ=              0.0000   YZ=              0.0000
 Octapole moment (field-independent basis, Debye-Ang**2):
  XXX=              0.0000  YYY=              0.0000  ZZZ=              0.0000  XYY=              0.0000
  XXY=              0.0000  XXZ=              0.0000  XZZ=              0.0000  YZZ=              0.0000
  YYZ=              0.0000  XYZ=              0.0000
 Hexadecapole moment (field-independent basis, Debye-Ang**3):
 XXXX=             -1.4862 YYYY=             -1.4862 ZZZZ=             -6.7528 XXXY=              0.0000
 XXXZ=              0.0000 YYYX=              0.0000 YYYZ=              0.0000 ZZZX=              0.0000
 ZZZY=              0.0000 XXYY=             -0.4954 XXZZ=             -1.4111 YYZZ=             -1.4111
 XXYZ=              0.0000 YYXZ=              0.0000 ZZXY=              0.0000
 N-N= 3.527848072800D-01 E-N=-3.110302819213D+00  KE= 1.402646662244D+00
 Symmetry AG   KE= 9.506876586912D-01
 Symmetry B1G  KE= 0.000000000000D+00
 Symmetry B2G  KE= 0.000000000000D+00
 Symmetry B3G  KE= 0.000000000000D+00
 Symmetry AU   KE= 0.000000000000D+00
 Symmetry B1U  KE= 4.519590035524D-01
 Symmetry B2U  KE= 0.000000000000D+00
 Symmetry B3U  KE= 0.000000000000D+00
 Symmetry AG   SP= 0.000000000000D+00
 Symmetry B1G  SP= 0.000000000000D+00
 Symmetry B2G  SP= 0.000000000000D+00
 Symmetry B3G  SP= 0.000000000000D+00
 Symmetry AU   SP= 0.000000000000D+00
 Symmetry B1U  SP= 0.000000000000D+00
 Symmetry B2U  SP= 0.000000000000D+00
 Symmetry B3U  SP= 0.000000000000D+00
                          Isotropic Fermi Contact Couplings
        Atom                 a.u.       MegaHertz       Gauss      10(-4) cm-1
     1  H(1)               0.33997     759.80399     271.11696     253.44333
     2  H(1)              -0.33997    -759.80399    -271.11696    -253.44333
 --------------------------------------------------------
       Center         ----  Spin Dipole Couplings  ----
                      3XX-RR        3YY-RR        3ZZ-RR
 --------------------------------------------------------
     1   Atom        0.034770      0.034770     -0.069541
     2   Atom       -0.034770     -0.034770      0.069541
 --------------------------------------------------------
                        XY            XZ            YZ
 --------------------------------------------------------
     1   Atom        0.000000      0.000000      0.000000
     2   Atom        0.000000      0.000000      0.000000
 --------------------------------------------------------


 ---------------------------------------------------------------------------------
              Anisotropic Spin Dipole Couplings in Principal Axis System
 ---------------------------------------------------------------------------------

       Atom             a.u.   MegaHertz   Gauss  10(-4) cm-1        Axes

              Baa    -0.0695   -37.104   -13.239   -12.376  0.0000  0.0000  1.0000
     1 H(1)   Bbb     0.0348    18.552     6.620     6.188  0.0000  1.0000  0.0000
              Bcc     0.0348    18.552     6.620     6.188  1.0000  0.0000  0.0000
 
              Baa    -0.0348   -18.552    -6.620    -6.188  0.0000  1.0000  0.0000
     2 H(1)   Bbb    -0.0348   -18.552    -6.620    -6.188  1.0000  0.0000  0.0000
              Bcc     0.0695    37.104    13.239    12.376  0.0000  0.0000  1.0000
 

 ---------------------------------------------------------------------------------

 No NMR shielding tensors so no spin-rotation constants.
 Leave Link  601 at Tue Jun  4 11:37:02 2019, MaxMem=   100000000 cpu:               0.1 elap:               0.1
 (Enter /Users/hhratchian/.gaussian/gdv-current/gdv/l9999.exe)

 Test job not archived.
 1\1\GINC-HRANTS-MACBOOK-PRO\SP\UHF\STO-3G\H2\HHRATCHIAN\04-Jun-2019\0\
 \#p test uhf sto-3g guess=mix output=mat\\Test001 - H2 at long distanc
 e with broken-symmetry result (1.5 A).\\0,1\H\H,1,1.5\\Version=EM64M-G
 DVRevI.09\HF=-0.9577068\S2=0.694894\S2-1=0.\S2A=0.\RMSD=8.950e-10\Dipo
 le=0.,0.,0.\Quadrupole=-0.0879822,-0.0879822,0.1759644,0.,0.,0.\PG=D*H
  [C*(H1.H1)]\\@


 I WANT IT ALL - RICH, THIN, AND CHOCOLATE.

 Writing WrtUnf unformatted file "test001.mat"
 Gaussian matrix elements                                         Version   2 NLab=11 Len12L=8 Len4L=8
 WrtUnf:  Coordinates translated and rotated.
 WrtUnf:  Coordinates match /B/ after translation and rotation.
 WrtI4R:  DoWrit=T IU=  31 LenA=           2
 WrtI4R:  DoWrit=T IU=  31 LenA=           6
 WrtI4R:  DoWrit=T IU=  31 LenA=           2
 Write SHELL TO ATOM MAP                   from file     0 offset           0 length                   2 to matrix element file.
 WrtI4R:  DoWrit=T IU=  31 LenA=        4000
 Write SHELL TYPES                         from file     0 offset           0 length                   2 to matrix element file.
 WrtI4R:  DoWrit=T IU=  31 LenA=        4000
 Write NUMBER OF PRIMITIVES PER SHELL      from file     0 offset           0 length                   2 to matrix element file.
 WrtI4R:  DoWrit=T IU=  31 LenA=        4000
 Write PRIMITIVE EXPONENTS                 from file     0 offset           0 length                   6 to matrix element file.
 WrtI4R:  DoWrit=T IU=  31 LenA=        4000
 Write CONTRACTION COEFFICIENTS            from file     0 offset           0 length                   6 to matrix element file.
 WrtI4R:  DoWrit=T IU=  31 LenA=        4000
 Write P(S=P) CONTRACTION COEFFICIENTS     from file     0 offset           0 length                   6 to matrix element file.
 WrtI4R:  DoWrit=T IU=  31 LenA=        4000
 Write COORDINATES OF EACH SHELL           from file     0 offset           0 length                   6 to matrix element file.
 WrtI4R:  DoWrit=T IU=  31 LenA=        4000
 Write GAUSSIAN SCALARS                    from file   501 offset           0 to matrix element file.
 Write INTEGER ISO                         from file     0 offset           0 length                   2 to matrix element file.
 WrtI4R:  DoWrit=T IU=  31 LenA=        4000
 Write INTEGER SPIN                        from file     0 offset           0 length                   2 to matrix element file.
 WrtI4R:  DoWrit=T IU=  31 LenA=        4000
 Write REAL ZEFFECTIVE                     from file     0 offset           0 length                   2 to matrix element file.
 WrtI4R:  DoWrit=T IU=  31 LenA=        4000
 Write REAL GFACTOR                        from file     0 offset           0 length                   2 to matrix element file.
 WrtI4R:  DoWrit=T IU=  31 LenA=        4000
 Write REAL ZNUCLEAR                       from file     0 offset           0 length                   2 to matrix element file.
 WrtI4R:  DoWrit=T IU=  31 LenA=        4000
 Write NUCLEAR GRADIENT                    from file 10584 offset           0 length                   6 to matrix element file.
 WrtI4R:  DoWrit=T IU=  31 LenA=        4000
 Array NUCLEAR FORCE CONSTANTS              on  file 10585 does not exist.
 Write ELECTRIC DIPOLE MOMENT              from file     0 offset           0 length                   3 to matrix element file.
 WrtI4R:  DoWrit=T IU=  31 LenA=        4000
 Write OVERLAP                             from file   514 offset           0 length                   3 to matrix element file.
 WrtI4R:  DoWrit=T IU=  31 LenA=        4000
 Write CORE HAMILTONIAN ALPHA              from file   515 offset           0 length                   3 to matrix element file.
 WrtI4R:  DoWrit=T IU=  31 LenA=        4000
 Write CORE HAMILTONIAN BETA               from file   515 offset           3 length                   3 to matrix element file.
 WrtI4R:  DoWrit=T IU=  31 LenA=        4000
 Write KINETIC ENERGY                      from file   516 offset           0 length                   3 to matrix element file.
 WrtI4R:  DoWrit=T IU=  31 LenA=        4000
 Write ORTHOGONAL BASIS                    from file   685 offset           0 length                   4 to matrix element file.
 WrtI4R:  DoWrit=T IU=  31 LenA=        4000
 Write DIPOLE INTEGRALS                    from file   518 offset           0 length                   9 to matrix element file.
 WrtI4R:  DoWrit=T IU=  31 LenA=        4000
 Write DIP VEL INTEGRALS                   from file   572 offset           0 length                   9 to matrix element file.
 WrtI4R:  DoWrit=T IU=  31 LenA=        4000
 Write R X DEL INTEGRALS                   from file   572 offset           9 length                   9 to matrix element file.
 WrtI4R:  DoWrit=T IU=  31 LenA=        4000
 Write ALPHA ORBITAL ENERGIES              from file     0 offset           0 length                   2 to matrix element file.
 WrtI4R:  DoWrit=T IU=  31 LenA=        4000
 Write BETA ORBITAL ENERGIES               from file     0 offset           0 length                   2 to matrix element file.
 WrtI4R:  DoWrit=T IU=  31 LenA=        4000
 Write ALPHA MO COEFFICIENTS               from file 10524 offset           0 length                   4 to matrix element file.
 WrtI4R:  DoWrit=T IU=  31 LenA=        4000
 Write BETA MO COEFFICIENTS                from file 10526 offset           0 length                   4 to matrix element file.
 WrtI4R:  DoWrit=T IU=  31 LenA=        4000
 Write ALPHA DENSITY MATRIX                from file 10528 offset           0 length                   3 to matrix element file.
 WrtI4R:  DoWrit=T IU=  31 LenA=        4000
 Write BETA DENSITY MATRIX                 from file 10530 offset           0 length                   3 to matrix element file.
 WrtI4R:  DoWrit=T IU=  31 LenA=        4000
 Write ALPHA SCF DENSITY MATRIX            from file 10528 offset           0 length                   3 to matrix element file.
 WrtI4R:  DoWrit=T IU=  31 LenA=        4000
 Write BETA SCF DENSITY MATRIX             from file 10530 offset           0 length                   3 to matrix element file.
 WrtI4R:  DoWrit=T IU=  31 LenA=        4000
 Write ALPHA FOCK MATRIX                   from file 10536 offset           0 length                   3 to matrix element file.
 WrtI4R:  DoWrit=T IU=  31 LenA=        4000
 Write BETA FOCK MATRIX                    from file 10538 offset           0 length                   3 to matrix element file.
 WrtI4R:  DoWrit=T IU=  31 LenA=        4000
 No 2e integrals to process.
 Job cpu time:       0 days  0 hours  0 minutes  0.7 seconds.
 Elapsed time:       0 days  0 hours  0 minutes  0.9 seconds.
 File lengths (MBytes):  RWF=      6 Int=      0 D2E=      0 Chk=      1 Scr=      1
 Normal termination of Gaussian DV at Tue Jun  4 11:37:02 2019.
